 Gaussian 09, Revision A.02,
 Gaussian 09:  AM64L-G09RevA.02 11-Jun-2009

 --------------------------------------------
 #N B3LYP/6-31G(d) OPT FREQ Geom=Connectivity
 --------------------------------------------

 ---
 H2O
 ---
 Symbolic Z-matrix:
 Charge =  0 Multiplicity = 1

 SCF Done:  E(RB3LYP) =  -76.4062596556     A.U. after    9 cycles
 SCF Done:  E(RB3LYP) =  -76.4089034859     A.U. after    9 cycles
 SCF Done:  E(RB3LYP) =  -76.4089529641     A.U. after    7 cycles
 SCF Done:  E(RB3LYP) =  -76.4089533400     A.U. after    6 cycles
 Optimization completed.
    -- Stationary point found.
 Normal termination of Gaussian 09 at Fri Mar 20 10:51:36 2015.

 --------------------------------------------------------------------
 #N Geom=AllCheck Guess=TCheck SCRF=Check GenChk RB3LYP/6-31G(d) Freq
 --------------------------------------------------------------------

 H2O
 ---
 Redundant internal coordinates taken from checkpoint file:
 /scratch/webmodemo/webmo-4350/188726/Gau-18138.chk
 Charge =  0 Multiplicity = 1

                         Standard orientation:
 ---------------------------------------------------------------------
 Center     Atomic      Atomic             Coordinates (Angstroms)
 Number     Number       Type             X           Y           Z
 ---------------------------------------------------------------------
      1          8           0        0.000000    0.000000    0.119747
      2          1           0        0.000000    0.761567   -0.478987
      3          1           0        0.000000   -0.761567   -0.478987
 ---------------------------------------------------------------------

 SCF Done:  E(RB3LYP) =  -76.4089533400     A.U. after    1 cycles

 The electronic state is 1-A1.
 Alpha  occ. eigenvalues --  -19.13817  -0.99787  -0.51713  -0.37222  -0.29119
 Alpha virt. eigenvalues --    0.06259   0.14811   0.77245   0.86091   0.89078
 Alpha virt. eigenvalues --    0.89509   1.06578   1.19343   1.72910   1.74638
 Alpha virt. eigenvalues --    1.77981   2.28055   2.57707   3.55189

 Mulliken atomic charges:
              1
     1  O   -0.774316
     2  H    0.387158
     3  H    0.387158
 Sum of Mulliken atomic charges =   0.00000

 Dipole moment (field-independent basis, Debye):
    X=              0.0000    Y=              0.0000    Z=             -2.0954  Tot=              2.0954
 Quadrupole moment (field-independent basis, Debye-Ang):
   XX=             -7.2039   YY=             -4.2865   ZZ=             -5.9898
   XY=              0.0000   XZ=              0.0000   YZ=              0.0000

  Exact polarizability:   2.830   0.000   7.395   0.000   0.000   5.424
 Approx polarizability:   3.082   0.000   8.972   0.000   0.000   6.755

                     1                      2                      3
                    A1                     A1                     B2
 Frequencies --  1713.1024              3727.3465              3849.3872
 Red. masses --     1.0825                 1.0454                 1.0810
 Frc consts  --     1.8717                 8.5568                 9.4376
 IR Inten    --    75.7855                 1.6941                19.3811

 - Thermochemistry -
 -------------------
 Temperature   298.150 Kelvin.  Pressure   1.00000 Atm.
 Atom     1 has atomic number  8 and mass  15.99491

 Molecular mass:    18.01056 amu.
 Principal axes and moments of inertia in atomic units:
                           1         2         3
     Eigenvalues --     2.29158   4.17474   6.46632
           X            0.00000   0.00000   1.00000
           Y            1.00000   0.00000   0.00000
           Z            0.00000   1.00000   0.00000
 This molecule is an asymmetric top.
 Rotational symmetry number  2.
 Rotational temperatures (Kelvin)     37.79656    20.74713    13.39462
 Rotational constants (GHZ):         787.55341   432.30064   279.09883
 Zero-point vibrational energy      55565.6 (Joules/Mol)
                                   13.28049 (Kcal/Mol)
 Vibrational temperatures:   2464.77  5362.81  5538.40
          (Kelvin)

 Zero-point correction=                           0.021164 (Hartree/Particle)
 Thermal correction to Energy=                    0.023998
 Thermal correction to Enthalpy=                  0.024943
 Thermal correction to Gibbs Free Energy=         0.003496
 Sum of electronic and zero-point Energies=            -76.387790
 Sum of electronic and thermal Energies=               -76.384955
 Sum of electronic and thermal Enthalpies=             -76.384011
 Sum of electronic and thermal Free Energies=          -76.405457

                     E (Thermal)             CV                S
                      KCal/Mol        Cal/Mol-Kelvin    Cal/Mol-Kelvin
 Total                   15.059              5.997             45.137
 Electronic               0.000              0.000              0.000
 Translational            0.889              2.981             34.608
 Rotational               0.889              2.981             10.524
 Vibrational             13.282              0.035              0.005

 Optimization completed.
    -- Stationary point found.
 Normal termination of Gaussian 09 at Fri Mar 20 10:51:40 2015.
